 running on    8 nodes
 distr:  one band on    1 nodes,    8 groups
 vasp.4.6.28 25Jul05 complex 
 POSCAR found :  1 types and   31 ions
 LDA part: xc-table for Pade appr. of Perdew
 generate k-points for:   4   8   6
 POSCAR, INCAR and KPOINTS ok, starting setup
 WARNING: wrap around errors must be expected
 FFT: planning ...           1
 reading WAVECAR
 entering main loop
       N       E                     dE             d eps       ncg     rms          rms(c)
RMM:   1     0.292629672453E+03    0.29263E+03   -0.16756E+04  6400   0.623E+02
RMM:   2    -0.146280386068E+02   -0.30726E+03   -0.30490E+03  6400   0.132E+02
RMM:   3    -0.843179859365E+02   -0.69690E+02   -0.71780E+02  6400   0.440E+01
RMM:   4    -0.101638772149E+03   -0.17321E+02   -0.16804E+02  6400   0.261E+01
RMM:   5    -0.108231050248E+03   -0.65923E+01   -0.54802E+01  6400   0.142E+01
RMM:   6    -0.110766471485E+03   -0.25354E+01   -0.21075E+01  6400   0.856E+00
RMM:   7    -0.111838243134E+03   -0.10718E+01   -0.90579E+00  6400   0.532E+00
RMM:   8    -0.112322264037E+03   -0.48402E+00   -0.41904E+00  6400   0.342E+00
RMM:   9    -0.112723400710E+03   -0.40114E+00   -0.37342E+00 15129   0.223E+00
RMM:  10    -0.112776421557E+03   -0.53021E-01   -0.33801E-01 16170   0.560E-01
RMM:  11    -0.112780039689E+03   -0.36181E-02   -0.16485E-02 12511   0.111E-01
RMM:  12    -0.112780154103E+03   -0.11441E-03   -0.71930E-04 11314   0.311E-02    0.564E+00
RMM:  13    -0.111630552486E+03    0.11496E+01   -0.21186E+00 12801   0.217E+00    0.327E+00
RMM:  14    -0.111368432693E+03    0.26212E+00   -0.58157E-01 12834   0.132E+00    0.131E+00
RMM:  15    -0.111330612661E+03    0.37820E-01   -0.74274E-02 13179   0.549E-01    0.378E-01
RMM:  16    -0.111326644939E+03    0.39677E-02   -0.88376E-03 13214   0.198E-01    0.116E-01
RMM:  17    -0.111326335279E+03    0.30966E-03   -0.17962E-03 13043   0.872E-02    0.405E-02
RMM:  18    -0.111326398570E+03   -0.63291E-04   -0.29903E-04 13394   0.370E-02    0.186E-02
RMM:  19    -0.111326440706E+03   -0.42136E-04   -0.55573E-05 10388   0.195E-02    0.784E-03
RMM:  20    -0.111326458086E+03   -0.17380E-04   -0.19716E-05  8340   0.127E-02    0.263E-03
RMM:  21    -0.111326460426E+03   -0.23406E-05   -0.47494E-06  7823   0.677E-03
   1 F= -.11132646E+03 E0= -.11132778E+03  d E =-.111326E+03
 curvature:   0.00 expect dE= 0.000E+00 dE for cont linesearch  0.000E+00
 trial: gam= 0.00000 g(F)=  0.378E+00 g(S)=  0.130E+00 ort = 0.000E+00 (trialstep = 0.100E+01)
 search vector abs. value=  0.508E+00
 bond charge predicted
       N       E                     dE             d eps       ncg     rms          rms(c)
RMM:   1    -0.111757764533E+03   -0.11176E+03   -0.35790E+00 12800   0.524E+00    0.632E-01
RMM:   2    -0.111733800625E+03    0.23964E-01   -0.61955E-02 12843   0.685E-01    0.343E-01
RMM:   3    -0.111728447452E+03    0.53532E-02   -0.17910E-02 13002   0.285E-01    0.122E-01
RMM:   4    -0.111728041831E+03    0.40562E-03   -0.13813E-03 13224   0.870E-02    0.540E-02
RMM:   5    -0.111727993815E+03    0.48015E-04   -0.23108E-04 13505   0.366E-02    0.188E-02
RMM:   6    -0.111727990689E+03    0.31260E-05   -0.44070E-05 10695   0.155E-02    0.601E-03
RMM:   7    -0.111727990695E+03   -0.54524E-08   -0.10877E-05  7804   0.834E-03    0.190E-03
RMM:   8    -0.111727991659E+03   -0.96404E-06   -0.22272E-06  7565   0.452E-03    0.109E-03
RMM:   9    -0.111727991913E+03   -0.25371E-06   -0.49628E-07  4642   0.176E-03    0.370E-04
RMM:  10    -0.111727992056E+03   -0.14326E-06   -0.17332E-07  3615   0.745E-04    0.136E-04
RMM:  11    -0.111727992046E+03    0.98887E-08   -0.92702E-09  2458   0.361E-05    0.477E-05
RMM:  12    -0.111727992030E+03    0.16130E-07   -0.44863E-09  2301   0.970E-06
   2 F= -.11172799E+03 E0= -.11172838E+03  d E =-.401532E+00
 trial-energy change:   -0.401532  1 .order   -0.400650   -0.508463   -0.292837
 step:   2.2860(harm=  2.3581)  dis= 0.06873  next Energy=  -111.918157 (dE=-0.592E+00)
 bond charge predicted
       N       E                     dE             d eps       ncg     rms          rms(c)
RMM:   1    -0.111963974526E+03   -0.11196E+03   -0.59038E+00 12800   0.677E+00    0.804E-01
RMM:   2    -0.111924430182E+03    0.39544E-01   -0.10225E-01 12839   0.882E-01    0.432E-01
RMM:   3    -0.111916025168E+03    0.84050E-02   -0.27852E-02 12994   0.358E-01    0.156E-01
RMM:   4    -0.111915330499E+03    0.69467E-03   -0.22826E-03 13171   0.111E-01    0.666E-02
RMM:   5    -0.111915253547E+03    0.76952E-04   -0.34055E-04 13545   0.447E-02    0.237E-02
RMM:   6    -0.111915246638E+03    0.69096E-05   -0.71287E-05 12317   0.192E-02    0.777E-03
RMM:   7    -0.111915245584E+03    0.10538E-05   -0.17864E-05  7950   0.960E-03    0.241E-03
RMM:   8    -0.111915246677E+03   -0.10932E-05   -0.26757E-06  7767   0.506E-03    0.134E-03
RMM:   9    -0.111915246983E+03   -0.30543E-06   -0.57795E-07  4857   0.181E-03    0.489E-04
RMM:  10    -0.111915247170E+03   -0.18702E-06   -0.29513E-07  4009   0.103E-03    0.191E-04
RMM:  11    -0.111915247155E+03    0.14788E-07   -0.13531E-08  2534   0.684E-05    0.577E-05
RMM:  12    -0.111915247137E+03    0.17568E-07   -0.32145E-09  2316   0.884E-06
   3 F= -.11191525E+03 E0= -.11191441E+03  d E =-.588787E+00
 curvature:  -1.18 expect dE=-0.220E+00 dE for cont linesearch -0.517E-04
 trial: gam= 0.37733 g(F)=  0.101E+00 g(S)=  0.865E-01 ort =-0.473E-02 (trialstep = 0.126E+01)
 search vector abs. value=  0.256E+00
 bond charge predicted
       N       E                     dE             d eps       ncg     rms          rms(c)
RMM:   1    -0.112077688124E+03   -0.11208E+03   -0.24369E+00 12800   0.453E+00    0.416E-01
RMM:   2    -0.112072040264E+03    0.56479E-02   -0.36539E-02 12842   0.551E-01    0.244E-01
RMM:   3    -0.112069987008E+03    0.20533E-02   -0.66678E-03 13208   0.197E-01    0.907E-02
RMM:   4    -0.112069723361E+03    0.26365E-03   -0.55213E-04 13419   0.590E-02    0.376E-02
RMM:   5    -0.112069670460E+03    0.52902E-04   -0.12490E-04 12875   0.267E-02    0.981E-03
RMM:   6    -0.112069665306E+03    0.51538E-05   -0.12473E-05  7863   0.104E-02    0.430E-03
RMM:   7    -0.112069664381E+03    0.92464E-06   -0.49296E-06  7782   0.687E-03    0.148E-03
RMM:   8    -0.112069664138E+03    0.24326E-06   -0.12948E-06  6283   0.326E-03    0.629E-04
RMM:   9    -0.112069664126E+03    0.12134E-07   -0.39109E-07  4560   0.155E-03    0.205E-04
RMM:  10    -0.112069664158E+03   -0.31868E-07   -0.98299E-08  3118   0.471E-04    0.677E-05
RMM:  11    -0.112069664167E+03   -0.94537E-08   -0.67462E-09  2257   0.209E-05    0.176E-05
RMM:  12    -0.112069664170E+03   -0.30102E-08   -0.12961E-09  2094   0.392E-06
   4 F= -.11206966E+03 E0= -.11206882E+03  d E =-.154417E+00
 trial-energy change:   -0.154417  1 .order   -0.155871   -0.233019   -0.078723
 step:   1.9607(harm=  1.8986)  dis= 0.06348  next Energy=  -112.091434 (dE=-0.176E+00)
 bond charge predicted
       N       E                     dE             d eps       ncg     rms          rms(c)
RMM:   1    -0.112094021189E+03   -0.11209E+03   -0.76440E-01 12800   0.252E+00    0.231E-01
RMM:   2    -0.112092252444E+03    0.17687E-02   -0.11395E-02 12854   0.309E-01    0.136E-01
RMM:   3    -0.112091594283E+03    0.65816E-03   -0.21646E-03 13189   0.111E-01    0.496E-02
RMM:   4    -0.112091510749E+03    0.83534E-04   -0.17226E-04 13175   0.328E-02    0.213E-02
RMM:   5    -0.112091491249E+03    0.19500E-04   -0.36789E-05  9406   0.153E-02    0.544E-03
RMM:   6    -0.112091489000E+03    0.22485E-05   -0.56273E-06  7788   0.807E-03    0.237E-03
RMM:   7    -0.112091488341E+03    0.65926E-06   -0.22946E-06  7545   0.487E-03    0.800E-04
RMM:   8    -0.112091488182E+03    0.15847E-06   -0.39850E-07  4543   0.176E-03    0.319E-04
RMM:   9    -0.112091488135E+03    0.46990E-07   -0.87515E-08  3095   0.546E-04    0.949E-05
RMM:  10    -0.112091488154E+03   -0.18545E-07   -0.11372E-08  2235   0.445E-05    0.277E-05
RMM:  11    -0.112091488158E+03   -0.39099E-08   -0.13636E-09  2008   0.448E-06    0.104E-05
RMM:  12    -0.112091488159E+03   -0.11198E-08    0.11367E-11  1854  -0.571E-09
   5 F= -.11209149E+03 E0= -.11209072E+03  d E =-.176241E+00
 curvature:  -1.30 expect dE=-0.122E+00 dE for cont linesearch -0.577E-06
 trial: gam= 0.50756 g(F)=  0.455E-01 g(S)=  0.485E-01 ort =-0.337E-03 (trialstep = 0.140E+01)
 search vector abs. value=  0.160E+00
 bond charge predicted
       N       E                     dE             d eps       ncg     rms          rms(c)
RMM:   1    -0.112211209633E+03   -0.11221E+03   -0.19485E+00 12800   0.391E+00    0.392E-01
RMM:   2    -0.112199805843E+03    0.11404E-01   -0.34560E-02 12895   0.508E-01    0.205E-01
RMM:   3    -0.112198050693E+03    0.17552E-02   -0.68711E-03 13160   0.180E-01    0.906E-02
RMM:   4    -0.112197886464E+03    0.16423E-03   -0.51053E-04 13223   0.558E-02    0.448E-02
RMM:   5    -0.112197857214E+03    0.29250E-04   -0.14938E-04 12831   0.286E-02    0.112E-02
RMM:   6    -0.112197856983E+03    0.23116E-06   -0.20668E-05  8100   0.108E-02    0.411E-03
RMM:   7    -0.112197857587E+03   -0.60406E-06   -0.52871E-06  7782   0.647E-03    0.116E-03
RMM:   8    -0.112197858006E+03   -0.41883E-06   -0.75420E-07  5095   0.204E-03    0.572E-04
RMM:   9    -0.112197858163E+03   -0.15658E-06   -0.13668E-07  3615   0.777E-04    0.164E-04
RMM:  10    -0.112197858190E+03   -0.26864E-07   -0.13349E-08  2441   0.682E-05    0.455E-05
RMM:  11    -0.112197858184E+03    0.52114E-08    0.90639E-11  2189  -0.568E-08    0.178E-05
RMM:  12    -0.112197858181E+03    0.30886E-08    0.21558E-11  2050  -0.111E-08
   6 F= -.11219786E+03 E0= -.11219676E+03  d E =-.106370E+00
 trial-energy change:   -0.106370  1 .order   -0.106000   -0.131192   -0.080808
 step:   3.4216(harm=  3.6398)  dis= 0.10851  next Energy=  -112.257474 (dE=-0.166E+00)
 bond charge predicted
       N       E                     dE             d eps       ncg     rms          rms(c)
RMM:   1    -0.112283041949E+03   -0.11228E+03   -0.41052E+00 12800   0.569E+00    0.570E-01
RMM:   2    -0.112259270685E+03    0.23771E-01   -0.71310E-02 12970   0.735E-01    0.300E-01
RMM:   3    -0.112255462510E+03    0.38082E-02   -0.14583E-02 13080   0.260E-01    0.130E-01
RMM:   4    -0.112255116708E+03    0.34580E-03   -0.10288E-03 13234   0.801E-02    0.640E-02
RMM:   5    -0.112255050854E+03    0.65854E-04   -0.30467E-04 12857   0.409E-02    0.160E-02
RMM:   6    -0.112255048903E+03    0.19506E-05   -0.43193E-05 10963   0.151E-02    0.603E-03
RMM:   7    -0.112255049043E+03   -0.13956E-06   -0.96112E-06  7804   0.802E-03    0.155E-03
RMM:   8    -0.112255049622E+03   -0.57889E-06   -0.13295E-06  5900   0.313E-03    0.803E-04
RMM:   9    -0.112255049881E+03   -0.25865E-06   -0.40601E-07  4518   0.153E-03    0.233E-04
RMM:  10    -0.112255049951E+03   -0.70269E-07   -0.10424E-07  3279   0.545E-04    0.735E-05
RMM:  11    -0.112255049945E+03    0.59354E-08   -0.13809E-09  2336   0.868E-06    0.222E-05
RMM:  12    -0.112255049943E+03    0.21569E-08   -0.68966E-10  2171   0.130E-06
   7 F= -.11225505E+03 E0= -.11225345E+03  d E =-.163562E+00
 curvature:  -3.07 expect dE=-0.170E+00 dE for cont linesearch -0.152E-03
 trial: gam= 0.65515 g(F)=  0.399E-01 g(S)=  0.156E-01 ort =-0.281E-02 (trialstep = 0.180E+01)
 search vector abs. value=  0.120E+00
 bond charge predicted
       N       E                     dE             d eps       ncg     rms          rms(c)
RMM:   1    -0.112330176654E+03   -0.11233E+03   -0.19428E+00 12800   0.426E+00    0.280E-01
RMM:   2    -0.112327706444E+03    0.24702E-02   -0.28141E-02 12930   0.509E-01    0.158E-01
RMM:   3    -0.112327073950E+03    0.63249E-03   -0.38996E-03 13292   0.162E-01    0.702E-02
RMM:   4    -0.112327045116E+03    0.28835E-04   -0.37154E-04 13206   0.512E-02    0.320E-02
RMM:   5    -0.112327040259E+03    0.48570E-05   -0.67780E-05 12337   0.221E-02    0.970E-03
RMM:   6    -0.112327038373E+03    0.18861E-05   -0.75394E-06  7804   0.871E-03    0.293E-03
RMM:   7    -0.112327037868E+03    0.50504E-06   -0.28338E-06  7688   0.508E-03    0.965E-04
RMM:   8    -0.112327037799E+03    0.68960E-07   -0.49013E-07  4615   0.165E-03    0.443E-04
RMM:   9    -0.112327037763E+03    0.35375E-07   -0.88573E-08  3162   0.506E-04    0.106E-04
RMM:  10    -0.112327037772E+03   -0.87621E-08   -0.52082E-09  2347   0.300E-05    0.320E-05
RMM:  11    -0.112327037775E+03   -0.24479E-08   -0.44151E-10  2172   0.510E-07    0.145E-05
RMM:  12    -0.112327037775E+03   -0.80991E-09   -0.42859E-10  2000   0.655E-07
   8 F= -.11232704E+03 E0= -.11232575E+03  d E =-.719878E-01
 trial-energy change:   -0.071988  1 .order   -0.072392   -0.096588   -0.048196
 step:   3.8107(harm=  3.5980)  dis= 0.12596  next Energy=  -112.353323 (dE=-0.983E-01)
 bond charge predicted
       N       E                     dE             d eps       ncg     rms          rms(c)
RMM:   1    -0.112354762943E+03   -0.11235E+03   -0.24089E+00 12800   0.473E+00    0.309E-01
RMM:   2    -0.112351983436E+03    0.27795E-02   -0.34431E-02 12949   0.565E-01    0.177E-01
RMM:   3    -0.112351190560E+03    0.79288E-03   -0.48395E-03 13289   0.180E-01    0.781E-02
RMM:   4    -0.112351158099E+03    0.32462E-04   -0.46891E-04 13219   0.573E-02    0.353E-02
RMM:   5    -0.112351152868E+03    0.52305E-05   -0.86630E-05 12659   0.247E-02    0.108E-02
RMM:   6    -0.112351150965E+03    0.19033E-05   -0.90165E-06  7810   0.947E-03    0.334E-03
RMM:   7    -0.112351150322E+03    0.64276E-06   -0.34998E-06  7751   0.561E-03    0.111E-03
RMM:   8    -0.112351150241E+03    0.80741E-07   -0.71533E-07  4942   0.199E-03    0.505E-04
RMM:   9    -0.112351150195E+03    0.46513E-07   -0.17152E-07  3582   0.787E-04    0.125E-04
RMM:  10    -0.112351150202E+03   -0.77989E-08   -0.11731E-08  2463   0.731E-05    0.368E-05
RMM:  11    -0.112351150206E+03   -0.34456E-08   -0.32644E-09  2201   0.745E-06    0.160E-05
RMM:  12    -0.112351150207E+03   -0.12346E-08   -0.13270E-10  2057   0.649E-07
   9 F= -.11235115E+03 E0= -.11235037E+03  d E =-.961003E-01
 curvature:  -3.98 expect dE=-0.156E+00 dE for cont linesearch -0.172E-03
 trial: gam= 0.62500 g(F)=  0.230E-01 g(S)=  0.161E-01 ort =-0.228E-02 (trialstep = 0.220E+01)
 search vector abs. value=  0.832E-01
 bond charge predicted
       N       E                     dE             d eps       ncg     rms          rms(c)
RMM:   1    -0.112393085457E+03   -0.11239E+03   -0.20148E+00 12800   0.442E+00    0.376E-01
RMM:   2    -0.112390158477E+03    0.29270E-02   -0.27864E-02 13049   0.520E-01    0.228E-01
RMM:   3    -0.112388630758E+03    0.15277E-02   -0.50625E-03 13132   0.177E-01    0.714E-02
RMM:   4    -0.112388503485E+03    0.12727E-03   -0.39752E-04 13224   0.528E-02    0.300E-02
RMM:   5    -0.112388487311E+03    0.16174E-04   -0.10201E-04 12676   0.243E-02    0.909E-03
RMM:   6    -0.112388488987E+03   -0.16760E-05   -0.10729E-05  7827   0.962E-03    0.369E-03
RMM:   7    -0.112388490274E+03   -0.12874E-05   -0.43368E-06  7743   0.616E-03    0.107E-03
RMM:   8    -0.112388490766E+03   -0.49205E-06   -0.86749E-07  5231   0.226E-03    0.494E-04
RMM:   9    -0.112388490856E+03   -0.90183E-07   -0.24811E-07  3841   0.100E-03    0.108E-04
RMM:  10    -0.112388490858E+03   -0.11835E-08   -0.35709E-08  2616   0.184E-04    0.480E-05
RMM:  11    -0.112388490851E+03    0.68924E-08   -0.55113E-09  2194   0.186E-05    0.183E-05
RMM:  12    -0.112388490845E+03    0.55268E-08   -0.92932E-10  2023   0.226E-06
  10 F= -.11238849E+03 E0= -.11238769E+03  d E =-.373406E-01
 trial-energy change:   -0.037341  1 .order   -0.036626   -0.083087    0.009836
 step:   1.9802(harm=  1.9709)  dis= 0.04778  next Energy=  -112.388990 (dE=-0.378E-01)
 bond charge predicted
       N       E                     dE             d eps       ncg     rms          rms(c)
RMM:   1    -0.112389050497E+03   -0.11239E+03   -0.20781E-02 12800   0.449E-01    0.379E-02
RMM:   2    -0.112389018614E+03    0.31883E-04   -0.27961E-04 12823   0.523E-02    0.232E-02
RMM:   3    -0.112388999431E+03    0.19183E-04   -0.50212E-05 11804   0.182E-02    0.721E-03
RMM:   4    -0.112388996801E+03    0.26301E-05   -0.40838E-06  7430   0.651E-03    0.300E-03
RMM:   5    -0.112388995792E+03    0.10081E-05   -0.12392E-06  5294   0.313E-03    0.858E-04
RMM:   6    -0.112388995488E+03    0.30463E-06   -0.33039E-07  3530   0.132E-03    0.303E-04
RMM:   7    -0.112388995422E+03    0.66097E-07   -0.49296E-08  2098   0.309E-04    0.588E-05
RMM:   8    -0.112388995411E+03    0.10620E-07   -0.17730E-08  1611   0.670E-05    0.254E-05
RMM:   9    -0.112388995412E+03   -0.12863E-08   -0.67514E-10  1293   0.131E-06    0.107E-05
RMM:  10    -0.112388995413E+03   -0.11428E-08    0.97741E-15  1134  -0.558E-12    0.447E-06
RMM:  11    -0.112388995413E+03    0.68667E-10    0.16658E-16  1038  -0.899E-14    0.376E-06
RMM:  12    -0.112388995414E+03   -0.56662E-09    0.88665E-18   944  -0.446E-15
  11 F= -.11238900E+03 E0= -.11238819E+03  d E =-.378452E-01
 curvature:  -2.17 expect dE=-0.407E-01 dE for cont linesearch -0.333E-07
 trial: gam= 0.41666 g(F)=  0.116E-01 g(S)=  0.711E-02 ort = 0.357E-04 (trialstep = 0.216E+01)
 search vector abs. value=  0.332E-01
 bond charge predicted
       N       E                     dE             d eps       ncg     rms          rms(c)
RMM:   1    -0.112415656720E+03   -0.11242E+03   -0.74106E-01 12800   0.273E+00    0.207E-01
RMM:   2    -0.112414557918E+03    0.10988E-02   -0.10313E-02 12843   0.320E-01    0.123E-01
RMM:   3    -0.112414176722E+03    0.38120E-03   -0.15910E-03 13332   0.106E-01    0.530E-02
RMM:   4    -0.112414128572E+03    0.48150E-04   -0.16759E-04 13116   0.343E-02    0.206E-02
RMM:   5    -0.112414117311E+03    0.11261E-04   -0.30738E-05  8838   0.149E-02    0.562E-03
RMM:   6    -0.112414115363E+03    0.19483E-05   -0.47129E-06  7766   0.767E-03    0.189E-03
RMM:   7    -0.112414114913E+03    0.44971E-06   -0.16894E-06  7260   0.438E-03    0.641E-04
RMM:   8    -0.112414114802E+03    0.11126E-06   -0.33722E-07  4313   0.153E-03    0.243E-04
RMM:   9    -0.112414114754E+03    0.47420E-07   -0.50290E-08  2735   0.341E-04    0.668E-05
RMM:  10    -0.112414114759E+03   -0.42539E-08   -0.61029E-10  2089   0.432E-06    0.189E-05
RMM:  11    -0.112414114761E+03   -0.18517E-08   -0.10092E-10  1931   0.640E-07    0.716E-06
RMM:  12    -0.112414114762E+03   -0.10350E-08    0.24612E-12  1780  -0.124E-09
  12 F= -.11241411E+03 E0= -.11241311E+03  d E =-.251193E-01
 trial-energy change:   -0.025119  1 .order   -0.025248   -0.040450   -0.010045
 step:   2.8979(harm=  2.8728)  dis= 0.03480  next Energy=  -112.415827 (dE=-0.268E-01)
 bond charge predicted
       N       E                     dE             d eps       ncg     rms          rms(c)
RMM:   1    -0.112416022645E+03   -0.11242E+03   -0.87194E-02 12800   0.935E-01    0.712E-02
RMM:   2    -0.112415884246E+03    0.13840E-03   -0.12249E-03 12858   0.110E-01    0.423E-02
RMM:   3    -0.112415835624E+03    0.48623E-04   -0.18861E-04 13070   0.363E-02    0.180E-02
RMM:   4    -0.112415828216E+03    0.74083E-05   -0.17086E-05  8071   0.123E-02    0.697E-03
RMM:   5    -0.112415826190E+03    0.20254E-05   -0.55607E-06  7632   0.747E-03    0.191E-03
RMM:   6    -0.112415825690E+03    0.50002E-06   -0.11919E-06  6441   0.356E-03    0.665E-04
RMM:   7    -0.112415825541E+03    0.14889E-06   -0.30582E-07  3999   0.138E-03    0.202E-04
RMM:   8    -0.112415825502E+03    0.39032E-07   -0.32202E-08  2319   0.188E-04    0.608E-05
RMM:   9    -0.112415825492E+03    0.10549E-07   -0.32831E-10  1828   0.276E-06    0.195E-05
RMM:  10    -0.112415825496E+03   -0.40657E-08    0.22828E-12  1663  -0.125E-09    0.806E-06
RMM:  11    -0.112415825495E+03    0.80354E-09    0.38981E-13  1521  -0.204E-10    0.440E-06
RMM:  12    -0.112415825495E+03   -0.61391E-10    0.13356E-13  1395  -0.740E-11
  13 F= -.11241583E+03 E0= -.11241476E+03  d E =-.268301E-01
 curvature:  -2.54 expect dE=-0.266E-01 dE for cont linesearch -0.163E-06
 trial: gam= 0.57408 g(F)=  0.521E-02 g(S)=  0.524E-02 ort =-0.462E-04 (trialstep = 0.231E+01)
 search vector abs. value=  0.213E-01
 bond charge predicted
       N       E                     dE             d eps       ncg     rms          rms(c)
RMM:   1    -0.112430934178E+03   -0.11243E+03   -0.51506E-01 12800   0.230E+00    0.203E-01
RMM:   2    -0.112429793406E+03    0.11408E-02   -0.77911E-03 12914   0.272E-01    0.120E-01
RMM:   3    -0.112429400900E+03    0.39251E-03   -0.13704E-03 13211   0.946E-02    0.455E-02
RMM:   4    -0.112429364778E+03    0.36123E-04   -0.13660E-04 13135   0.307E-02    0.155E-02
RMM:   5    -0.112429363608E+03    0.11694E-05   -0.17965E-05  8100   0.123E-02    0.495E-03
RMM:   6    -0.112429364967E+03   -0.13584E-05   -0.42090E-06  7735   0.685E-03    0.184E-03
RMM:   7    -0.112429365615E+03   -0.64815E-06   -0.13151E-06  6188   0.329E-03    0.631E-04
RMM:   8    -0.112429365846E+03   -0.23166E-06   -0.31900E-07  4295   0.141E-03    0.190E-04
RMM:   9    -0.112429365857E+03   -0.10618E-07   -0.35748E-08  2586   0.225E-04    0.451E-05
RMM:  10    -0.112429365852E+03    0.49690E-08   -0.27219E-09  2095   0.682E-06    0.200E-05
RMM:  11    -0.112429365851E+03    0.10652E-08   -0.18228E-09  1942   0.621E-06    0.737E-06
RMM:  12    -0.112429365852E+03   -0.85652E-09    0.30622E-11  1799  -0.261E-08
  14 F= -.11242937E+03 E0= -.11242786E+03  d E =-.135404E-01
 trial-energy change:   -0.013540  1 .order   -0.013419   -0.024050   -0.002787
 step:   2.5983(harm=  2.6096)  dis= 0.02211  next Energy=  -112.429542 (dE=-0.137E-01)
 bond charge predicted
       N       E                     dE             d eps       ncg     rms          rms(c)
RMM:   1    -0.112429564536E+03   -0.11243E+03   -0.82449E-03 12800   0.290E-01    0.256E-02
RMM:   2    -0.112429548349E+03    0.16187E-04   -0.12671E-04 12731   0.346E-02    0.152E-02
RMM:   3    -0.112429543154E+03    0.51950E-05   -0.19237E-05  7997   0.122E-02    0.572E-03
RMM:   4    -0.112429543541E+03   -0.38680E-06   -0.35129E-06  7385   0.641E-03    0.189E-03
RMM:   5    -0.112429543945E+03   -0.40446E-06   -0.84140E-07  5296   0.261E-03    0.582E-04
RMM:   6    -0.112429544105E+03   -0.15939E-06   -0.15049E-07  3150   0.848E-04    0.192E-04
RMM:   7    -0.112429544142E+03   -0.37795E-07   -0.26220E-08  2044   0.178E-04    0.410E-05
RMM:   8    -0.112429544149E+03   -0.62926E-08   -0.19642E-09  1635   0.717E-06    0.143E-05
RMM:   9    -0.112429544148E+03    0.76238E-09    0.28143E-12  1455  -0.153E-09    0.589E-06
RMM:  10    -0.112429544147E+03    0.84492E-09   -0.19938E-10  1313   0.654E-07    0.440E-06
RMM:  11    -0.112429544148E+03   -0.60413E-09    0.51993E-14  1221  -0.310E-11    0.395E-06
RMM:  12    -0.112429544147E+03    0.31673E-09    0.29973E-18  1153  -0.153E-15
  15 F= -.11242954E+03 E0= -.11242800E+03  d E =-.137187E-01
 curvature:  -2.67 expect dE=-0.131E-01 dE for cont linesearch -0.577E-07
 trial: gam= 0.43859 g(F)=  0.306E-02 g(S)=  0.183E-02 ort =-0.215E-04 (trialstep = 0.237E+01)
 search vector abs. value=  0.898E-02
 bond charge predicted
       N       E                     dE             d eps       ncg     rms          rms(c)
RMM:   1    -0.112436611284E+03   -0.11244E+03   -0.23527E-01 12800   0.153E+00    0.149E-01
RMM:   2    -0.112435807597E+03    0.80369E-03   -0.38792E-03 12902   0.184E-01    0.850E-02
RMM:   3    -0.112435609122E+03    0.19848E-03   -0.63397E-04 13237   0.637E-02    0.338E-02
RMM:   4    -0.112435578593E+03    0.30529E-04   -0.71494E-05 12735   0.217E-02    0.101E-02
RMM:   5    -0.112435574937E+03    0.36561E-05   -0.73521E-06  7797   0.838E-03    0.320E-03
RMM:   6    -0.112435573883E+03    0.10540E-05   -0.23803E-06  7593   0.498E-03    0.109E-03
RMM:   7    -0.112435573625E+03    0.25805E-06   -0.54822E-07  4489   0.170E-03    0.337E-04
RMM:   8    -0.112435573564E+03    0.61113E-07   -0.93562E-08  2980   0.483E-04    0.109E-04
RMM:   9    -0.112435573567E+03   -0.27494E-08   -0.38439E-09  2144   0.225E-05    0.297E-05
RMM:  10    -0.112435573571E+03   -0.46502E-08   -0.61388E-10  1958   0.196E-06    0.142E-05
RMM:  11    -0.112435573572E+03   -0.21805E-09   -0.15413E-10  1781   0.651E-07    0.566E-06
RMM:  12    -0.112435573572E+03   -0.87653E-09    0.24365E-12  1645  -0.126E-09
  16 F= -.11243557E+03 E0= -.11243391E+03  d E =-.602943E-02
 trial-energy change:   -0.006029  1 .order   -0.006069   -0.011557   -0.000582
 step:   2.4909(harm=  2.4909)  dis= 0.01458  next Energy=  -112.435629 (dE=-0.608E-02)
 bond charge predicted
       N       E                     dE             d eps       ncg     rms          rms(c)
RMM:   1    -0.112435594475E+03   -0.11244E+03   -0.67273E-04 12800   0.812E-02    0.795E-03
RMM:   2    -0.112435591456E+03    0.30195E-05   -0.97380E-06  7749   0.101E-02    0.451E-03
RMM:   3    -0.112435590569E+03    0.88654E-06   -0.32443E-06  7039   0.571E-03    0.175E-03
RMM:   4    -0.112435590241E+03    0.32781E-06   -0.54136E-07  4603   0.177E-03    0.561E-04
RMM:   5    -0.112435590116E+03    0.12563E-06   -0.57074E-08  2095   0.221E-04    0.120E-04
RMM:   6    -0.112435590098E+03    0.17850E-07   -0.35886E-09  1427   0.167E-05    0.379E-05
RMM:   7    -0.112435590101E+03   -0.27892E-08    0.35330E-14  1282  -0.173E-11    0.930E-06
RMM:   8    -0.112435590101E+03    0.21828E-10    0.26858E-14  1186  -0.151E-11    0.599E-06
RMM:   9    -0.112435590101E+03    0.13961E-09    0.62570E-15  1118  -0.340E-12    0.442E-06
RMM:  10    -0.112435590101E+03   -0.34424E-09    0.37562E-16  1046  -0.201E-13    0.414E-06
RMM:  11    -0.112435590101E+03    0.39086E-09    0.14138E-20   987  -0.723E-18    0.407E-06
RMM:  12    -0.112435590101E+03   -0.49158E-09    0.62308E-21   932  -0.343E-18
  17 F= -.11243559E+03 E0= -.11243392E+03  d E =-.604595E-02
 curvature:  -2.29 expect dE=-0.780E-02 dE for cont linesearch -0.114E-07
 trial: gam= 0.69777 g(F)=  0.200E-02 g(S)=  0.140E-02 ort = 0.670E-05 (trialstep = 0.239E+01)
 search vector abs. value=  0.779E-02
 bond charge predicted
       N       E                     dE             d eps       ncg     rms          rms(c)
RMM:   1    -0.112441422849E+03   -0.11244E+03   -0.20848E-01 12800   0.145E+00    0.101E-01
RMM:   2    -0.112441227871E+03    0.19498E-03   -0.29489E-03 13008   0.173E-01    0.604E-02
RMM:   3    -0.112441148920E+03    0.78950E-04   -0.40661E-04 13295   0.537E-02    0.257E-02
RMM:   4    -0.112441143887E+03    0.50338E-05   -0.34608E-05  9095   0.173E-02    0.924E-03
RMM:   5    -0.112441144658E+03   -0.77177E-06   -0.80905E-06  7777   0.954E-03    0.225E-03
RMM:   6    -0.112441145325E+03   -0.66705E-06   -0.19199E-06  7434   0.512E-03    0.867E-04
RMM:   7    -0.112441145567E+03   -0.24195E-06   -0.46162E-07  4595   0.190E-03    0.274E-04
RMM:   8    -0.112441145658E+03   -0.90280E-07   -0.85474E-08  2965   0.531E-04    0.720E-05
RMM:   9    -0.112441145658E+03   -0.67371E-09   -0.92112E-10  2008   0.747E-06    0.197E-05
RMM:  10    -0.112441145655E+03    0.35450E-08   -0.20107E-10  1833   0.651E-07    0.922E-06
RMM:  11    -0.112441145654E+03    0.71054E-09   -0.38076E-10  1667   0.980E-07    0.448E-06
RMM:  12    -0.112441145654E+03   -0.40154E-09    0.12870E-12  1523  -0.617E-10
  18 F= -.11244115E+03 E0= -.11243936E+03  d E =-.555555E-02
 trial-energy change:   -0.005556  1 .order   -0.005504   -0.008154   -0.002853
 step:   3.5736(harm=  3.6772)  dis= 0.02115  next Energy=  -112.441858 (dE=-0.627E-02)
 bond charge predicted
       N       E                     dE             d eps       ncg     rms          rms(c)
RMM:   1    -0.112441982609E+03   -0.11244E+03   -0.51150E-02 12800   0.716E-01    0.502E-02
RMM:   2    -0.112441937950E+03    0.44659E-04   -0.72805E-04 13010   0.856E-02    0.299E-02
RMM:   3    -0.112441919827E+03    0.18123E-04   -0.98126E-05 12902   0.266E-02    0.128E-02
RMM:   4    -0.112441919388E+03    0.43858E-06   -0.84785E-06  7770   0.930E-03    0.460E-03
RMM:   5    -0.112441920137E+03   -0.74860E-06   -0.28270E-06  7480   0.554E-03    0.112E-03
RMM:   6    -0.112441920451E+03   -0.31428E-06   -0.50488E-07  4250   0.172E-03    0.425E-04
RMM:   7    -0.112441920567E+03   -0.11545E-06   -0.12279E-07  2827   0.543E-04    0.962E-05
RMM:   8    -0.112441920583E+03   -0.16791E-07   -0.15603E-08  2020   0.102E-04    0.302E-05
RMM:   9    -0.112441920584E+03   -0.23329E-09   -0.26575E-10  1704   0.206E-06    0.150E-05
RMM:  10    -0.112441920580E+03    0.38128E-08   -0.14365E-10  1536   0.653E-07    0.527E-06
RMM:  11    -0.112441920580E+03   -0.47521E-09    0.11316E-12  1378  -0.639E-10    0.416E-06
RMM:  12    -0.112441920580E+03    0.38722E-09    0.19329E-13  1280  -0.985E-11
  19 F= -.11244192E+03 E0= -.11244008E+03  d E =-.633048E-02
 curvature:  -4.17 expect dE=-0.103E-01 dE for cont linesearch -0.478E-05
 trial: gam= 0.71591 g(F)=  0.120E-02 g(S)=  0.127E-02 ort = 0.945E-04 (trialstep = 0.263E+01)
 search vector abs. value=  0.660E-02
 bond charge predicted
       N       E                     dE             d eps       ncg     rms          rms(c)
RMM:   1    -0.112445901198E+03   -0.11245E+03   -0.21031E-01 12800   0.145E+00    0.126E-01
RMM:   2    -0.112445389500E+03    0.51170E-03   -0.32115E-03 12917   0.173E-01    0.732E-02
RMM:   3    -0.112445249360E+03    0.14014E-03   -0.50300E-04 13277   0.567E-02    0.305E-02
RMM:   4    -0.112445228724E+03    0.20636E-04   -0.48720E-05 10561   0.189E-02    0.110E-02
RMM:   5    -0.112445224649E+03    0.40744E-05   -0.10084E-05  7791   0.978E-03    0.272E-03
RMM:   6    -0.112445223874E+03    0.77488E-06   -0.22410E-06  7582   0.534E-03    0.104E-03
RMM:   7    -0.112445223619E+03    0.25477E-06   -0.53284E-07  4869   0.212E-03    0.279E-04
RMM:   8    -0.112445223556E+03    0.63324E-07   -0.86521E-08  3016   0.530E-04    0.103E-04
RMM:   9    -0.112445223552E+03    0.42478E-08   -0.12390E-09  2076   0.892E-06    0.246E-05
RMM:  10    -0.112445223555E+03   -0.35905E-08    0.12328E-11  1895  -0.603E-09    0.117E-05
RMM:  11    -0.112445223556E+03   -0.33879E-10   -0.25871E-10  1740   0.130E-06    0.592E-06
RMM:  12    -0.112445223556E+03   -0.34947E-09    0.18679E-12  1599  -0.812E-10
  20 F= -.11244522E+03 E0= -.11244326E+03  d E =-.330298E-02
 trial-energy change:   -0.003303  1 .order   -0.003319   -0.006674    0.000035
 step:   2.6133(harm=  2.6133)  dis= 0.01432  next Energy=  -112.445240 (dE=-0.332E-02)
 bond charge predicted
       N       E                     dE             d eps       ncg     rms          rms(c)
RMM:   1    -0.112445223554E+03   -0.11245E+03   -0.52438E-06  6894   0.787E-03    0.637E-04
RMM:   2    -0.112445223569E+03   -0.15223E-07   -0.12292E-08  2100   0.385E-05    0.389E-04
RMM:   3    -0.112445223597E+03   -0.28680E-07   -0.40173E-09  1269   0.119E-05    0.109E-04
RMM:   4    -0.112445223609E+03   -0.11500E-07   -0.10433E-09  1138   0.311E-06    0.288E-05
RMM:   5    -0.112445223611E+03   -0.22342E-08    0.20230E-20  1048  -0.900E-18    0.614E-06
RMM:   6    -0.112445223610E+03    0.10541E-08    0.14186E-20   993  -0.661E-18    0.418E-06
RMM:   7    -0.112445223611E+03   -0.69122E-09    0.95176E-21   927  -0.458E-18    0.390E-06
RMM:   8    -0.112445223611E+03    0.22010E-09    0.51934E-21   891  -0.252E-18    0.389E-06
RMM:   9    -0.112445223611E+03   -0.16826E-10    0.44206E-21   851  -0.233E-18    0.389E-06
RMM:  10    -0.112445223611E+03   -0.25193E-09    0.13903E-24   816  -0.595E-22    0.389E-06
RMM:  11    -0.112445223610E+03    0.60663E-09    0.11958E-24   777  -0.551E-22    0.389E-06
RMM:  12    -0.112445223610E+03   -0.24465E-09    0.10308E-24   749  -0.512E-22
  21 F= -.11244522E+03 E0= -.11244326E+03  d E =-.330303E-02
 curvature:  -3.39 expect dE=-0.498E-02 dE for cont linesearch -0.364E-07
 trial: gam= 0.62802 g(F)=  0.878E-03 g(S)=  0.590E-03 ort = 0.841E-05 (trialstep = 0.262E+01)
 search vector abs. value=  0.408E-02
 bond charge predicted
       N       E                     dE             d eps       ncg     rms          rms(c)
RMM:   1    -0.112447733718E+03   -0.11245E+03   -0.11643E-01 12800   0.113E+00    0.917E-02
RMM:   2    -0.112447606782E+03    0.12694E-03   -0.16973E-03 12954   0.131E-01    0.551E-02
RMM:   3    -0.112447540515E+03    0.66267E-04   -0.34287E-04 13081   0.470E-02    0.146E-02
RMM:   4    -0.112447537954E+03    0.25606E-05   -0.23928E-05  8655   0.137E-02    0.558E-03
RMM:   5    -0.112447539059E+03   -0.11046E-05   -0.46054E-06  7619   0.761E-03    0.166E-03
RMM:   6    -0.112447539492E+03   -0.43315E-06   -0.13354E-06  6794   0.393E-03    0.637E-04
RMM:   7    -0.112447539625E+03   -0.13354E-06   -0.27120E-07  3869   0.129E-03    0.207E-04
RMM:   8    -0.112447539667E+03   -0.41505E-07   -0.21516E-08  2308   0.140E-04    0.755E-05
RMM:   9    -0.112447539670E+03   -0.34372E-08   -0.23036E-10  1913   0.201E-06    0.251E-05
RMM:  10    -0.112447539667E+03    0.34934E-08    0.36586E-12  1728  -0.188E-09    0.881E-06
RMM:  11    -0.112447539666E+03    0.34152E-09    0.12313E-12  1592  -0.574E-10    0.463E-06
RMM:  12    -0.112447539667E+03   -0.35243E-09    0.71941E-13  1479  -0.357E-10
  22 F= -.11244754E+03 E0= -.11244553E+03  d E =-.231606E-02
 trial-energy change:   -0.002316  1 .order   -0.002310   -0.003865   -0.000754
 step:   3.2609(harm=  3.2609)  dis= 0.01413  next Energy=  -112.447625 (dE=-0.240E-02)
 bond charge predicted
       N       E                     dE             d eps       ncg     rms          rms(c)
RMM:   1    -0.112447645669E+03   -0.11245E+03   -0.68814E-03 12800   0.273E-01    0.223E-02
RMM:   2    -0.112447639501E+03    0.61675E-05   -0.10294E-04 12566   0.322E-02    0.134E-02
RMM:   3    -0.112447636490E+03    0.30115E-05   -0.18765E-05  7856   0.120E-02    0.350E-03
RMM:   4    -0.112447636901E+03   -0.41099E-06   -0.27734E-06  7338   0.593E-03    0.136E-03
RMM:   5    -0.112447637180E+03   -0.27919E-06   -0.51120E-07  4209   0.189E-03    0.419E-04
RMM:   6    -0.112447637271E+03   -0.91369E-07   -0.90091E-08  2628   0.561E-04    0.135E-04
RMM:   7    -0.112447637283E+03   -0.11696E-07   -0.10242E-08  1769   0.821E-05    0.272E-05
RMM:   8    -0.112447637285E+03   -0.20757E-08   -0.43034E-10  1468   0.137E-06    0.127E-05
RMM:   9    -0.112447637284E+03    0.14165E-08   -0.37864E-10  1304   0.674E-07    0.469E-06
RMM:  10    -0.112447637284E+03    0.69576E-10   -0.30291E-10  1162   0.654E-07    0.406E-06
RMM:  11    -0.112447637283E+03    0.29422E-09    0.56707E-18  1068  -0.321E-15    0.397E-06
RMM:  12    -0.112447637283E+03   -0.14916E-09    0.34504E-19  1008  -0.161E-16
  23 F= -.11244764E+03 E0= -.11244563E+03  d E =-.241367E-02
 curvature:  -4.52 expect dE=-0.649E-02 dE for cont linesearch -0.178E-07
 trial: gam= 0.95273 g(F)=  0.879E-03 g(S)=  0.558E-03 ort = 0.401E-05 (trialstep = 0.218E+01)
 search vector abs. value=  0.515E-02
 bond charge predicted
       N       E                     dE             d eps       ncg     rms          rms(c)
RMM:   1    -0.112449939425E+03   -0.11245E+03   -0.98489E-02 12800   0.105E+00    0.747E-02
RMM:   2    -0.112449837508E+03    0.10192E-03   -0.14154E-03 13131   0.121E-01    0.437E-02
RMM:   3    -0.112449802486E+03    0.35022E-04   -0.18763E-04 13097   0.367E-02    0.169E-02
RMM:   4    -0.112449797920E+03    0.45656E-05   -0.16181E-05  8102   0.123E-02    0.552E-03
RMM:   5    -0.112449797283E+03    0.63767E-06   -0.43540E-06  7625   0.705E-03    0.158E-03
RMM:   6    -0.112449797020E+03    0.26282E-06   -0.11218E-06  6282   0.326E-03    0.572E-04
RMM:   7    -0.112449796930E+03    0.90119E-07   -0.24411E-07  3694   0.107E-03    0.138E-04
RMM:   8    -0.112449796908E+03    0.21556E-07   -0.12899E-08  2187   0.980E-05    0.448E-05
RMM:   9    -0.112449796909E+03   -0.75306E-09    0.11957E-11  1851  -0.619E-09    0.118E-05
RMM:  10    -0.112449796911E+03   -0.20334E-08    0.44430E-12  1662  -0.241E-09    0.586E-06
RMM:  11    -0.112449796910E+03    0.12208E-08    0.17592E-12  1538  -0.937E-10    0.449E-06
RMM:  12    -0.112449796911E+03   -0.72873E-09    0.51227E-13  1421  -0.285E-10
  24 F= -.11244980E+03 E0= -.11244784E+03  d E =-.215963E-02
 trial-energy change:   -0.002160  1 .order   -0.002160   -0.003142   -0.001177
 step:   3.4882(harm=  3.4882)  dis= 0.01766  next Energy=  -112.450150 (dE=-0.251E-02)
 bond charge predicted
       N       E                     dE             d eps       ncg     rms          rms(c)
RMM:   1    -0.112450209158E+03   -0.11245E+03   -0.35396E-02 12800   0.629E-01    0.447E-02
RMM:   2    -0.112450172231E+03    0.36928E-04   -0.51196E-04 13133   0.728E-02    0.262E-02
RMM:   3    -0.112450158903E+03    0.13328E-04   -0.67506E-05 12550   0.221E-02    0.101E-02
RMM:   4    -0.112450156913E+03    0.19897E-05   -0.60387E-06  7731   0.784E-03    0.328E-03
RMM:   5    -0.112450156532E+03    0.38115E-06   -0.18135E-06  7337   0.454E-03    0.951E-04
RMM:   6    -0.112450156358E+03    0.17424E-06   -0.28420E-07  3727   0.119E-03    0.341E-04
RMM:   7    -0.112450156295E+03    0.62864E-07   -0.41687E-08  2293   0.232E-04    0.572E-05
RMM:   8    -0.112450156292E+03    0.33833E-08   -0.22096E-09  1819   0.204E-05    0.238E-05
RMM:   9    -0.112450156293E+03   -0.16262E-08    0.49229E-12  1628  -0.253E-09    0.117E-05
RMM:  10    -0.112450156294E+03   -0.87903E-09    0.20185E-12  1489  -0.104E-09    0.510E-06
RMM:  11    -0.112450156295E+03   -0.47976E-09    0.12601E-12  1356  -0.739E-10    0.448E-06
RMM:  12    -0.112450156294E+03    0.15280E-09    0.13720E-14  1223  -0.770E-12
  25 F= -.11245016E+03 E0= -.11244825E+03  d E =-.251901E-02
 curvature:  -6.23 expect dE=-0.698E-02 dE for cont linesearch -0.130E-06
 trial: gam= 0.77427 g(F)=  0.786E-03 g(S)=  0.333E-03 ort = 0.104E-04 (trialstep = 0.244E+01)
 search vector abs. value=  0.422E-02
 bond charge predicted
       N       E                     dE             d eps       ncg     rms          rms(c)
RMM:   1    -0.112452111197E+03   -0.11245E+03   -0.99217E-02 12800   0.106E+00    0.744E-02
RMM:   2    -0.112452058192E+03    0.53005E-04   -0.14190E-03 12999   0.123E-01    0.448E-02
RMM:   3    -0.112452024478E+03    0.33714E-04   -0.18833E-04 13188   0.381E-02    0.173E-02
RMM:   4    -0.112452023208E+03    0.12699E-05   -0.16463E-05  8026   0.127E-02    0.569E-03
RMM:   5    -0.112452023917E+03   -0.70932E-06   -0.49247E-06  7634   0.734E-03    0.168E-03
RMM:   6    -0.112452024368E+03   -0.45062E-06   -0.12106E-06  6455   0.348E-03    0.616E-04
RMM:   7    -0.112452024520E+03   -0.15209E-06   -0.27100E-07  3824   0.117E-03    0.185E-04
RMM:   8    -0.112452024562E+03   -0.41509E-07   -0.20796E-08  2242   0.127E-04    0.511E-05
RMM:   9    -0.112452024566E+03   -0.43976E-08   -0.54859E-10  1860   0.423E-06    0.160E-05
RMM:  10    -0.112452024562E+03    0.35911E-08    0.56649E-12  1665  -0.298E-09    0.775E-06
RMM:  11    -0.112452024563E+03   -0.36653E-09    0.19228E-12  1536  -0.103E-09    0.419E-06
RMM:  12    -0.112452024562E+03    0.33810E-09    0.20785E-12  1413  -0.161E-09
  26 F= -.11245202E+03 E0= -.11245015E+03  d E =-.186827E-02
 trial-energy change:   -0.001868  1 .order   -0.001858   -0.002753   -0.000963
 step:   3.7566(harm=  3.7566)  dis= 0.01886  next Energy=  -112.452273 (dE=-0.212E-02)
 bond charge predicted
       N       E                     dE             d eps       ncg     rms          rms(c)
RMM:   1    -0.112452319958E+03   -0.11245E+03   -0.28758E-02 12800   0.572E-01    0.401E-02
RMM:   2    -0.112452306317E+03    0.13641E-04   -0.41541E-04 12982   0.665E-02    0.242E-02
RMM:   3    -0.112452297364E+03    0.89520E-05   -0.54217E-05 12272   0.207E-02    0.927E-03
RMM:   4    -0.112452297591E+03   -0.22663E-06   -0.54064E-06  7657   0.771E-03    0.305E-03
RMM:   5    -0.112452298078E+03   -0.48687E-06   -0.17199E-06  7135   0.445E-03    0.905E-04
RMM:   6    -0.112452298298E+03   -0.21981E-06   -0.27824E-07  3685   0.127E-03    0.322E-04
RMM:   7    -0.112452298371E+03   -0.73122E-07   -0.49863E-08  2353   0.300E-04    0.704E-05
RMM:   8    -0.112452298380E+03   -0.95347E-08   -0.63275E-09  1824   0.505E-05    0.232E-05
RMM:   9    -0.112452298380E+03    0.77625E-09   -0.55050E-11  1557   0.325E-07    0.857E-06
RMM:  10    -0.112452298378E+03    0.19340E-08    0.12480E-12  1445  -0.574E-10    0.516E-06
RMM:  11    -0.112452298379E+03   -0.94246E-09   -0.10789E-10  1330   0.653E-07    0.396E-06
RMM:  12    -0.112452298378E+03    0.82582E-09    0.51450E-13  1205  -0.292E-10
  27 F= -.11245230E+03 E0= -.11245045E+03  d E =-.214208E-02
 curvature:  -7.03 expect dE=-0.930E-02 dE for cont linesearch -0.101E-06
 trial: gam= 1.19664 g(F)=  0.673E-03 g(S)=  0.649E-03 ort = 0.778E-05 (trialstep = 0.155E+01)
 search vector abs. value=  0.739E-02
 bond charge predicted
       N       E                     dE             d eps       ncg     rms          rms(c)
RMM:   1    -0.112453816936E+03   -0.11245E+03   -0.68052E-02 12800   0.887E-01    0.563E-02
RMM:   2    -0.112453824074E+03   -0.71374E-05   -0.91540E-04 13172   0.102E-01    0.349E-02
RMM:   3    -0.112453802925E+03    0.21148E-04   -0.11680E-04 12992   0.301E-02    0.109E-02
RMM:   4    -0.112453800790E+03    0.21353E-05   -0.77107E-06  7787   0.946E-03    0.393E-03
RMM:   5    -0.112453800029E+03    0.76074E-06   -0.33509E-06  7469   0.587E-03    0.118E-03
RMM:   6    -0.112453799818E+03    0.21093E-06   -0.58134E-07  4500   0.179E-03    0.482E-04
RMM:   7    -0.112453799719E+03    0.99245E-07   -0.13333E-07  2932   0.545E-04    0.973E-05
RMM:   8    -0.112453799706E+03    0.12705E-07   -0.12516E-08  2014   0.682E-05    0.314E-05
RMM:   9    -0.112453799706E+03    0.59140E-09   -0.13439E-10  1708   0.136E-06    0.139E-05
RMM:  10    -0.112453799708E+03   -0.25029E-08    0.35576E-12  1564  -0.179E-09    0.629E-06
RMM:  11    -0.112453799708E+03    0.99590E-10    0.13654E-12  1415  -0.683E-10    0.417E-06
RMM:  12    -0.112453799708E+03    0.40632E-09    0.77792E-13  1293  -0.422E-10
  28 F= -.11245380E+03 E0= -.11245202E+03  d E =-.150133E-02
 trial-energy change:   -0.001501  1 .order   -0.001506   -0.002059   -0.000954
 step:   2.8816(harm=  2.8816)  dis= 0.02127  next Energy=  -112.454217 (dE=-0.192E-02)
 bond charge predicted
       N       E                     dE             d eps       ncg     rms          rms(c)
RMM:   1    -0.112454231161E+03   -0.11245E+03   -0.50752E-02 12800   0.766E-01    0.486E-02
RMM:   2    -0.112454236440E+03   -0.52787E-05   -0.68548E-04 13172   0.878E-02    0.301E-02
RMM:   3    -0.112454220375E+03    0.16065E-04   -0.87677E-05 12812   0.260E-02    0.933E-03
RMM:   4    -0.112454218677E+03    0.16980E-05   -0.58038E-06  7750   0.830E-03    0.339E-03
RMM:   5    -0.112454218049E+03    0.62773E-06   -0.25502E-06  7382   0.515E-03    0.101E-03
RMM:   6    -0.112454217862E+03    0.18733E-06   -0.37332E-07  3922   0.133E-03    0.414E-04
RMM:   7    -0.112454217773E+03    0.89089E-07   -0.68963E-08  2499   0.317E-04    0.803E-05
RMM:   8    -0.112454217764E+03    0.89531E-08   -0.54528E-09  1846   0.301E-05    0.265E-05
RMM:   9    -0.112454217763E+03    0.18827E-09   -0.15582E-10  1642   0.146E-06    0.125E-05
RMM:  10    -0.112454217766E+03   -0.20809E-08    0.18681E-12  1523  -0.105E-09    0.521E-06
RMM:  11    -0.112454217766E+03   -0.49567E-10    0.23352E-13  1366  -0.124E-10    0.393E-06
RMM:  12    -0.112454217766E+03   -0.33651E-10    0.29145E-14  1244  -0.165E-11
  29 F= -.11245422E+03 E0= -.11245250E+03  d E =-.191939E-02
 curvature:  -7.99 expect dE=-0.745E-02 dE for cont linesearch -0.176E-06
 trial: gam= 0.70236 g(F)=  0.627E-03 g(S)=  0.306E-03 ort = 0.128E-04 (trialstep = 0.181E+01)
 search vector abs. value=  0.459E-02
 bond charge predicted
       N       E                     dE             d eps       ncg     rms          rms(c)
RMM:   1    -0.112455529153E+03   -0.11246E+03   -0.58481E-02 12800   0.818E-01    0.511E-02
RMM:   2    -0.112455530946E+03   -0.17925E-05   -0.79836E-04 13187   0.945E-02    0.310E-02
RMM:   3    -0.112455521176E+03    0.97703E-05   -0.91412E-05 12766   0.271E-02    0.121E-02
RMM:   4    -0.112455521657E+03   -0.48173E-06   -0.79935E-06  7768   0.944E-03    0.422E-03
RMM:   5    -0.112455522215E+03   -0.55774E-06   -0.28067E-06  7444   0.555E-03    0.118E-03
RMM:   6    -0.112455522446E+03   -0.23108E-06   -0.45929E-07  4309   0.168E-03    0.408E-04
RMM:   7    -0.112455522510E+03   -0.63877E-07   -0.89563E-08  2648   0.438E-04    0.968E-05
RMM:   8    -0.112455522524E+03   -0.13489E-07   -0.12390E-08  1938   0.632E-05    0.320E-05
RMM:   9    -0.112455522523E+03    0.10414E-09   -0.38944E-10  1694   0.373E-06    0.129E-05
RMM:  10    -0.112455522521E+03    0.22942E-08    0.88923E-13  1530  -0.453E-10    0.584E-06
RMM:  11    -0.112455522522E+03   -0.94315E-09    0.37950E-13  1375  -0.196E-10    0.356E-06
RMM:  12    -0.112455522521E+03    0.11178E-08    0.17422E-13  1275  -0.972E-11
  30 F= -.11245552E+03 E0= -.11245387E+03  d E =-.130476E-02
 trial-energy change:   -0.001305  1 .order   -0.001289   -0.001707   -0.000870
 step:   3.7000(harm=  3.7000)  dis= 0.02390  next Energy=  -112.455959 (dE=-0.174E-02)
 bond charge predicted
       N       E                     dE             d eps       ncg     rms          rms(c)
RMM:   1    -0.112455995009E+03   -0.11246E+03   -0.63340E-02 12800   0.852E-01    0.532E-02
RMM:   2    -0.112455996596E+03   -0.15871E-05   -0.86615E-04 13165   0.985E-02    0.323E-02
RMM:   3    -0.112455986006E+03    0.10590E-04   -0.10019E-04 12877   0.283E-02    0.125E-02
RMM:   4    -0.112455986495E+03   -0.48913E-06   -0.84995E-06  7784   0.972E-03    0.440E-03
RMM:   5    -0.112455987080E+03   -0.58460E-06   -0.30266E-06  7470   0.574E-03    0.122E-03
RMM:   6    -0.112455987321E+03   -0.24181E-06   -0.52138E-07  4492   0.181E-03    0.423E-04
RMM:   7    -0.112455987389E+03   -0.67274E-07   -0.11028E-07  2755   0.491E-04    0.101E-04
RMM:   8    -0.112455987402E+03   -0.13027E-07   -0.11083E-08  1986   0.693E-05    0.336E-05
RMM:   9    -0.112455987403E+03   -0.11560E-08   -0.35575E-10  1718   0.351E-06    0.133E-05
RMM:  10    -0.112455987400E+03    0.26280E-08    0.98920E-13  1554  -0.487E-10    0.593E-06
RMM:  11    -0.112455987400E+03   -0.13006E-09   -0.14062E-10  1392   0.654E-07    0.347E-06
RMM:  12    -0.112455987401E+03   -0.44906E-09    0.25571E-13  1291  -0.139E-10
  31 F= -.11245599E+03 E0= -.11245440E+03  d E =-.176964E-02
 curvature:  -9.03 expect dE=-0.749E-02 dE for cont linesearch -0.461E-08
 trial: gam= 0.88776 g(F)=  0.583E-03 g(S)=  0.246E-03 ort =-0.153E-05 (trialstep = 0.219E+01)
 search vector abs. value=  0.445E-02
 bond charge predicted
       N       E                     dE             d eps       ncg     rms          rms(c)
RMM:   1    -0.112457236882E+03   -0.11246E+03   -0.82384E-02 12800   0.969E-01    0.600E-02
RMM:   2    -0.112457211701E+03    0.25181E-04   -0.11478E-03 13269   0.112E-01    0.357E-02
RMM:   3    -0.112457197978E+03    0.13722E-04   -0.10541E-04 12783   0.299E-02    0.170E-02
RMM:   4    -0.112457194887E+03    0.30911E-05   -0.12097E-05  7804   0.114E-02    0.546E-03
RMM:   5    -0.112457194077E+03    0.81003E-06   -0.33108E-06  7570   0.636E-03    0.135E-03
RMM:   6    -0.112457193831E+03    0.24579E-06   -0.71848E-07  5229   0.243E-03    0.454E-04
RMM:   7    -0.112457193761E+03    0.70231E-07   -0.14414E-07  3058   0.662E-04    0.111E-04
RMM:   8    -0.112457193742E+03    0.18990E-07   -0.12826E-08  2080   0.818E-05    0.341E-05
RMM:   9    -0.112457193741E+03    0.13890E-08   -0.10244E-09  1799   0.955E-06    0.110E-05
RMM:  10    -0.112457193743E+03   -0.22251E-08    0.53138E-12  1595  -0.295E-09    0.431E-06
RMM:  11    -0.112457193743E+03    0.10004E-10    0.13817E-12  1449  -0.790E-10    0.353E-06
RMM:  12    -0.112457193742E+03    0.66643E-09    0.69040E-14  1332  -0.374E-11
  32 F= -.11245719E+03 E0= -.11245575E+03  d E =-.120634E-02
 trial-energy change:   -0.001206  1 .order   -0.001209   -0.001814   -0.000603
 step:   3.2831(harm=  3.2831)  dis= 0.02214  next Energy=  -112.457346 (dE=-0.136E-02)
 bond charge predicted
       N       E                     dE             d eps       ncg     rms          rms(c)
RMM:   1    -0.112457355662E+03   -0.11246E+03   -0.20523E-02 12800   0.483E-01    0.299E-02
RMM:   2    -0.112457348733E+03    0.69291E-05   -0.28676E-04 12903   0.561E-02    0.178E-02
RMM:   3    -0.112457344430E+03    0.43037E-05   -0.23781E-05  8538   0.157E-02    0.841E-03
RMM:   4    -0.112457343529E+03    0.90031E-06   -0.55336E-06  7499   0.862E-03    0.262E-03
RMM:   5    -0.112457343220E+03    0.30938E-06   -0.16307E-06  7046   0.488E-03    0.672E-04
RMM:   6    -0.112457343112E+03    0.10805E-06   -0.21941E-07  3434   0.123E-03    0.226E-04
RMM:   7    -0.112457343080E+03    0.31698E-07   -0.48380E-08  2289   0.334E-04    0.521E-05
RMM:   8    -0.112457343075E+03    0.48437E-08   -0.30593E-09  1702   0.243E-05    0.183E-05
RMM:   9    -0.112457343075E+03    0.40677E-09    0.31081E-12  1474  -0.176E-09    0.495E-06
RMM:  10    -0.112457343076E+03   -0.88357E-09    0.21077E-13  1313  -0.114E-10    0.347E-06
RMM:  11    -0.112457343076E+03    0.69122E-10    0.18093E-14  1220  -0.103E-11    0.308E-06
RMM:  12    -0.112457343075E+03    0.45065E-09    0.37933E-18  1106  -0.188E-15
  33 F= -.11245734E+03 E0= -.11245597E+03  d E =-.135567E-02
 curvature:  -8.82 expect dE=-0.572E-02 dE for cont linesearch -0.809E-07
 trial: gam= 0.76566 g(F)=  0.355E-03 g(S)=  0.293E-03 ort =-0.639E-05 (trialstep = 0.241E+01)
 search vector abs. value=  0.325E-02
 bond charge predicted
       N       E                     dE             d eps       ncg     rms          rms(c)
RMM:   1    -0.112458196059E+03   -0.11246E+03   -0.76168E-02 12800   0.918E-01    0.624E-02
RMM:   2    -0.112458138518E+03    0.57541E-04   -0.11069E-03 13027   0.108E-01    0.369E-02
RMM:   3    -0.112458118368E+03    0.20151E-04   -0.12543E-04 13159   0.322E-02    0.173E-02
RMM:   4    -0.112458116610E+03    0.17580E-05   -0.14577E-05  7850   0.117E-02    0.551E-03
RMM:   5    -0.112458117492E+03   -0.88224E-06   -0.36241E-06  7585   0.653E-03    0.153E-03
RMM:   6    -0.112458117936E+03   -0.44343E-06   -0.80358E-07  5283   0.251E-03    0.515E-04
RMM:   7    -0.112458118075E+03   -0.13906E-06   -0.20053E-07  3377   0.883E-04    0.150E-04
RMM:   8    -0.112458118105E+03   -0.30551E-07   -0.20467E-08  2099   0.864E-05    0.500E-05
RMM:   9    -0.112458118110E+03   -0.51771E-08   -0.10377E-09  1777   0.464E-06    0.151E-05
RMM:  10    -0.112458118105E+03    0.53649E-08   -0.99595E-11  1577   0.324E-07    0.798E-06
RMM:  11    -0.112458118107E+03   -0.17512E-08   -0.29649E-10  1447   0.980E-07    0.319E-06
RMM:  12    -0.112458118106E+03    0.48180E-09    0.15371E-13  1340  -0.864E-11
  34 F= -.11245812E+03 E0= -.11245689E+03  d E =-.775031E-03
 trial-energy change:   -0.000775  1 .order   -0.000747   -0.001551    0.000056
 step:   2.3255(harm=  2.3255)  dis= 0.01325  next Energy=  -112.458091 (dE=-0.748E-03)
 bond charge predicted
       N       E                     dE             d eps       ncg     rms          rms(c)
RMM:   1    -0.112458119000E+03   -0.11246E+03   -0.89670E-05 12792   0.321E-02    0.217E-03
RMM:   2    -0.112458118740E+03    0.25960E-06   -0.77391E-07  5617   0.281E-03    0.129E-03
RMM:   3    -0.112458118593E+03    0.14670E-06   -0.39310E-08  1590   0.158E-04    0.617E-04
RMM:   4    -0.112458118498E+03    0.95265E-07   -0.30616E-08  1138   0.119E-04    0.976E-05
RMM:   5    -0.112458118487E+03    0.11011E-07   -0.48853E-10   761   0.261E-06    0.268E-05
RMM:   6    -0.112458118487E+03   -0.14870E-09    0.11831E-24   710  -0.596E-22    0.952E-06
RMM:   7    -0.112458118488E+03   -0.14620E-09    0.10267E-24   684  -0.551E-22    0.387E-06
RMM:   8    -0.112458118488E+03   -0.77375E-09    0.24885E-27   655  -0.124E-24    0.311E-06
RMM:   9    -0.112458118488E+03    0.28876E-09    0.64977E-28   632  -0.312E-25    0.287E-06
RMM:  10    -0.112458118488E+03    0.19440E-09    0.57201E-28   612  -0.292E-25    0.281E-06
RMM:  11    -0.112458118488E+03   -0.99362E-10    0.15207E-28   594  -0.764E-26    0.281E-06
RMM:  12    -0.112458118488E+03    0.16507E-09    0.19180E-29   573  -0.895E-27
  35 F= -.11245812E+03 E0= -.11245688E+03  d E =-.775412E-03
 curvature:  -5.86 expect dE=-0.179E-02 dE for cont linesearch -0.113E-06
 trial: gam= 0.44603 g(F)=  0.182E-03 g(S)=  0.123E-03 ort = 0.792E-05 (trialstep = 0.239E+01)
 search vector abs. value=  0.957E-03
 bond charge predicted
       N       E                     dE             d eps       ncg     rms          rms(c)
RMM:   1    -0.112458589938E+03   -0.11246E+03   -0.23691E-02 12800   0.500E-01    0.398E-02
RMM:   2    -0.112458535335E+03    0.54603E-04   -0.36026E-04 12838   0.587E-02    0.227E-02
RMM:   3    -0.112458522517E+03    0.12818E-04   -0.47321E-05 11239   0.187E-02    0.107E-02
RMM:   4    -0.112458519930E+03    0.25867E-05   -0.65932E-06  7622   0.822E-03    0.387E-03
RMM:   5    -0.112458519181E+03    0.74951E-06   -0.20375E-06  7249   0.490E-03    0.922E-04
RMM:   6    -0.112458518982E+03    0.19947E-06   -0.30993E-07  3850   0.152E-03    0.322E-04
RMM:   7    -0.112458518916E+03    0.65275E-07   -0.64544E-08  2485   0.415E-04    0.785E-05
RMM:   8    -0.112458518903E+03    0.13305E-07   -0.48851E-09  1757   0.270E-05    0.250E-05
RMM:   9    -0.112458518903E+03    0.23510E-09   -0.75743E-11  1527   0.652E-07    0.732E-06
RMM:  10    -0.112458518904E+03   -0.16983E-08    0.12407E-12  1378  -0.692E-10    0.395E-06
RMM:  11    -0.112458518904E+03    0.32514E-10    0.21788E-13  1260  -0.125E-10    0.301E-06
RMM:  12    -0.112458518905E+03   -0.15461E-09    0.56095E-17  1147  -0.277E-14
  36 F= -.11245852E+03 E0= -.11245740E+03  d E =-.400417E-03
 trial-energy change:   -0.000400  1 .order   -0.000404   -0.000737   -0.000070
 step:   2.6447(harm=  2.6447)  dis= 0.00747  next Energy=  -112.458526 (dE=-0.408E-03)
 reached required accuracy - stopping structural energy minimisation
